HEADER
"PSFversion" "1.00"
"design" "(\"project\" \"4b_adder_subtractor\" \"schematic\" \"\")"
"simulator" "spectre"
"temperature" "27"
"host" ""
"date" "Oct 30 23:47:08 2013"
"title" ""
"analysisList" "()"
END
