HEADER
"PSFversion" "1.00"
"Inv_0n" "cmos_inv"
"V0n" "NCSU_Analog_Parts_vdc_spectre"
"C0n" "NCSU_Analog_Parts_cap_spectre"
"V1n" "NCSU_Analog_Parts_vpulse_spectre"
