HEADER
"PSFversion" "1.00"
"__NEXT_FILE__" "cmos_inv_tb"
