HEADER
"PSFversion" "1.00"
"I2n" "nand"
"I3n" "cmos_inv"
"Av" ":1v"
"Bv" ":2v"
"Fv" ":3v"
"[@inh_bn:%:gnd!]v" ":4v"
