HEADER
"PSFversion" "1.00"
"M0n" "NCSU_Analog_Parts_nmos_spectre"
"M1n" "NCSU_Analog_Parts_pmos_spectre"
"Vinv" ":1v"
"Voutv" ":2v"
"[@inh_bn:%:gnd!]v" ":3v"
