HEADER
"PSFversion" "1.00"
"I8n I7n I6n I5n" "xor"
"I9n" "or"
"I3n I2n I4n I0n" "project_1b_fullAdder_schematic"
