HEADER
"PSFversion" "1.00"
"__NEXT_FILE__" "project_4b_adder_subtractor_schematic"
