HEADER
"PSFversion" "1.00"
"M5n M4n M1n M0n" "NCSU_Analog_Parts_nmos_spectre"
"M7n M6n M3n M2n" "NCSU_Analog_Parts_pmos_spectre"
"Av" ":1v"
"AxorBv" ":2v"
"Bv" ":3v"
"[@inh_bn:%:gnd!]v" ":4v"
