HEADER
"PSFversion" "1.00"
"design" "(\"project\" \"single_bit_tb\" \"schematic\" \"\")"
"simulator" "spectre"
"temperature" "27"
"host" ""
"date" "Oct 30 20:32:38 2013"
"title" ""
"analysisList" "()"
END
