HEADER
"PSFversion" "1.00"
"Time Stamp" "Oct 30 20:32:38 2013"
TYPE
"variable" STRUCT(
"value" FLOAT DOUBLE
) PROP( "key" "element" )
VALUE
"temp" "variable" ( 27 ) PROP( )
END
