HEADER
"PSFversion" "1.00"
"design" "(\"0_Tutorial\" \"cmos_inv_tb\" \"schematic\" \"\")"
"simulator" "spectre"
"temperature" "27"
"host" ""
"date" "Oct 26 19:35:20 2013"
"title" ""
"analysisList" "()"
END
