HEADER
"PSFversion" "1.00"
"Time Stamp" "Oct 26 19:35:20 2013"
TYPE
"variable" STRUCT(
"value" FLOAT DOUBLE
) PROP( "key" "element" )
VALUE
"temp" "variable" ( 27 ) PROP( )
END
